<?xml version="1.0" encoding="UTF-8"?>

<!-- generated on 2024-11-11 19:35:11 by Eclipse SUMO GUI Version 1.20.0
<configuration xmlns:xsi="http://www.w3.org/2001/XMLSchema-instance" xsi:noNamespaceSchemaLocation="http://sumo.dlr.de/xsd/sumoConfiguration.xsd">

    <input>
        <net-file value="Roc.net.xml"/>
        <route-files value="cars.rou.xml"/>
    </input>

    <output>
        <tripinfo-output value="output_tripinfo.xml"/>
    </output>

    <time>
        <begin value="0"/>
        <end value="1000"/>
    </time>

    <report>
        <no-warnings value="true"/>
    </report>

</configuration>
-->

<tripinfos xmlns:xsi="http://www.w3.org/2001/XMLSchema-instance" xsi:noNamespaceSchemaLocation="http://sumo.dlr.de/xsd/tripinfo_file.xsd">
    <tripinfo id="1" depart="2.00" departLane="-20141568#0_0" departPos="5.10" departSpeed="13.03" departDelay="0.60" arrival="96.00" arrivalLane="-20136506#1_0" arrivalPos="90.90" arrivalSpeed="11.75" duration="94.00" routeLength="1054.70" waitingTime="0.00" waitingCount="0" stopTime="0.00" timeLoss="11.00" rerouteNo="0" devices="tripinfo_1" vType="car" speedFactor="0.94" vaporized=""/>
    <tripinfo id="3" depart="5.00" departLane="413399527#2_0" departPos="5.10" departSpeed="14.86" departDelay="0.80" arrival="154.00" arrivalLane="-15276248#11_0" arrivalPos="98.79" arrivalSpeed="12.35" duration="149.00" routeLength="1377.00" waitingTime="38.00" waitingCount="1" stopTime="0.00" timeLoss="47.45" rerouteNo="0" devices="tripinfo_3" vType="car" speedFactor="0.83" vaporized=""/>
    <tripinfo id="3.1" depart="6.00" departLane="413399527#2_0" departPos="5.10" departSpeed="11.63" departDelay="1.80" arrival="155.00" arrivalLane="-15276248#11_0" arrivalPos="98.79" arrivalSpeed="14.88" duration="149.00" routeLength="1377.00" waitingTime="36.00" waitingCount="1" stopTime="0.00" timeLoss="68.61" rerouteNo="0" devices="tripinfo_3.1" vType="car" speedFactor="1.05" vaporized=""/>
    <tripinfo id="3.2" depart="7.00" departLane="413399527#2_0" departPos="5.10" departSpeed="7.47" departDelay="2.80" arrival="157.00" arrivalLane="-15276248#11_0" arrivalPos="98.79" arrivalSpeed="12.69" duration="150.00" routeLength="1377.00" waitingTime="35.00" waitingCount="1" stopTime="0.00" timeLoss="55.10" rerouteNo="0" devices="tripinfo_3.2" vType="car" speedFactor="0.89" vaporized=""/>
    <tripinfo id="12" depart="17.00" departLane="674166094#2_0" departPos="5.10" departSpeed="27.92" departDelay="0.20" arrival="208.00" arrivalLane="-613230853#0_0" arrivalPos="134.15" arrivalSpeed="27.91" duration="191.00" routeLength="3795.10" waitingTime="27.00" waitingCount="2" stopTime="0.00" timeLoss="51.99" rerouteNo="0" devices="tripinfo_12" vType="car" speedFactor="1.01" vaporized=""/>
    <tripinfo id="12.1" depart="18.00" departLane="674166094#2_0" departPos="5.10" departSpeed="26.78" departDelay="1.20" arrival="209.00" arrivalLane="-613230853#0_0" arrivalPos="134.15" arrivalSpeed="29.22" duration="191.00" routeLength="3795.10" waitingTime="25.00" waitingCount="2" stopTime="0.00" timeLoss="72.11" rerouteNo="0" devices="tripinfo_12.1" vType="car" speedFactor="1.17" vaporized=""/>
    <tripinfo id="12.2" depart="19.00" departLane="674166094#2_0" departPos="5.10" departSpeed="24.92" departDelay="2.20" arrival="212.00" arrivalLane="-613230853#0_0" arrivalPos="134.15" arrivalSpeed="26.86" duration="193.00" routeLength="3795.10" waitingTime="23.00" waitingCount="2" stopTime="0.00" timeLoss="53.30" rerouteNo="0" devices="tripinfo_12.2" vType="car" speedFactor="0.99" vaporized=""/>
    <tripinfo id="11" depart="16.00" departLane="-390634953#9_0" departPos="5.10" departSpeed="16.65" departDelay="0.60" arrival="215.00" arrivalLane="-20125037#1_0" arrivalPos="59.32" arrivalSpeed="11.66" duration="199.00" routeLength="1615.74" waitingTime="81.00" waitingCount="2" stopTime="0.00" timeLoss="102.39" rerouteNo="0" devices="tripinfo_11" vType="car" speedFactor="0.93" vaporized=""/>
    <tripinfo id="11.1" depart="17.00" departLane="-390634953#9_0" departPos="5.10" departSpeed="13.82" departDelay="1.60" arrival="217.00" arrivalLane="-20125037#1_0" arrivalPos="59.32" arrivalSpeed="15.11" duration="200.00" routeLength="1615.74" waitingTime="79.00" waitingCount="2" stopTime="0.00" timeLoss="122.41" rerouteNo="0" devices="tripinfo_11.1" vType="car" speedFactor="1.18" vaporized=""/>
    <tripinfo id="11.2" depart="18.00" departLane="-390634953#9_0" departPos="5.10" departSpeed="10.48" departDelay="2.60" arrival="219.00" arrivalLane="-20125037#1_0" arrivalPos="59.32" arrivalSpeed="15.08" duration="201.00" routeLength="1615.74" waitingTime="76.00" waitingCount="2" stopTime="0.00" timeLoss="122.62" rerouteNo="0" devices="tripinfo_11.2" vType="car" speedFactor="1.15" vaporized=""/>
    <tripinfo id="39" depart="55.00" departLane="-20139496#0_0" departPos="5.10" departSpeed="14.37" departDelay="0.40" arrival="237.00" arrivalLane="-20140381#1_0" arrivalPos="92.16" arrivalSpeed="13.27" duration="182.00" routeLength="2095.01" waitingTime="6.00" waitingCount="1" stopTime="0.00" timeLoss="31.45" rerouteNo="0" devices="tripinfo_39" vType="car" speedFactor="1.03" vaporized=""/>
    <tripinfo id="39.1" depart="56.00" departLane="-20139496#0_0" departPos="5.10" departSpeed="12.12" departDelay="1.40" arrival="240.00" arrivalLane="-20140381#1_0" arrivalPos="92.16" arrivalSpeed="14.63" duration="184.00" routeLength="2095.01" waitingTime="4.00" waitingCount="1" stopTime="0.00" timeLoss="36.91" rerouteNo="0" devices="tripinfo_39.1" vType="car" speedFactor="1.06" vaporized=""/>
    <tripinfo id="39.2" depart="57.00" departLane="-20139496#0_0" departPos="5.10" departSpeed="9.13" departDelay="2.40" arrival="245.00" arrivalLane="-20140381#1_0" arrivalPos="92.16" arrivalSpeed="12.73" duration="188.00" routeLength="2095.01" waitingTime="0.00" waitingCount="0" stopTime="0.00" timeLoss="25.03" rerouteNo="0" devices="tripinfo_39.2" vType="car" speedFactor="0.96" vaporized=""/>
    <tripinfo id="24.1" depart="35.00" departLane="20124217#0_0" departPos="5.10" departSpeed="9.48" departDelay="1.40" arrival="247.00" arrivalLane="-674166079#2_0" arrivalPos="31.89" arrivalSpeed="24.71" duration="212.00" routeLength="1575.94" waitingTime="73.00" waitingCount="3" stopTime="0.00" timeLoss="111.48" rerouteNo="0" devices="tripinfo_24.1" vType="car" speedFactor="0.91" vaporized=""/>
    <tripinfo id="91" depart="128.00" departLane="76536995#3_0" departPos="5.10" departSpeed="15.83" departDelay="0.60" arrival="249.00" arrivalLane="-19930608#0_0" arrivalPos="47.74" arrivalSpeed="11.64" duration="121.00" routeLength="1430.35" waitingTime="0.00" waitingCount="0" stopTime="0.00" timeLoss="15.36" rerouteNo="0" devices="tripinfo_91" vType="car" speedFactor="1.14" vaporized=""/>
    <tripinfo id="24" depart="34.00" departLane="20124217#0_0" departPos="5.10" departSpeed="12.26" departDelay="0.40" arrival="252.00" arrivalLane="-674166079#2_0" arrivalPos="31.89" arrivalSpeed="23.37" duration="218.00" routeLength="1575.94" waitingTime="81.00" waitingCount="2" stopTime="0.00" timeLoss="114.35" rerouteNo="0" devices="tripinfo_24" vType="car" speedFactor="0.88" vaporized=""/>
    <tripinfo id="91.1" depart="129.00" departLane="76536995#3_0" departPos="5.10" departSpeed="13.18" departDelay="1.60" arrival="254.00" arrivalLane="-19930608#0_0" arrivalPos="47.74" arrivalSpeed="11.73" duration="125.00" routeLength="1430.35" waitingTime="0.00" waitingCount="0" stopTime="0.00" timeLoss="17.71" rerouteNo="0" devices="tripinfo_91.1" vType="car" speedFactor="1.11" vaporized=""/>
    <tripinfo id="2" depart="3.00" departLane="20140241#0_0" departPos="5.10" departSpeed="14.03" departDelay="0.20" arrival="255.00" arrivalLane="20133107_0" arrivalPos="409.24" arrivalSpeed="13.85" duration="252.00" routeLength="2878.92" waitingTime="14.00" waitingCount="1" stopTime="0.00" timeLoss="47.78" rerouteNo="0" devices="tripinfo_2" vType="car" speedFactor="1.01" vaporized=""/>
    <tripinfo id="2.1" depart="4.00" departLane="20140241#0_0" departPos="5.10" departSpeed="11.41" departDelay="1.20" arrival="257.00" arrivalLane="20133107_0" arrivalPos="409.24" arrivalSpeed="13.78" duration="253.00" routeLength="2878.92" waitingTime="11.00" waitingCount="1" stopTime="0.00" timeLoss="60.52" rerouteNo="0" devices="tripinfo_2.1" vType="car" speedFactor="1.08" vaporized=""/>
    <tripinfo id="2.2" depart="5.00" departLane="20140241#0_0" departPos="5.10" departSpeed="8.08" departDelay="2.20" arrival="260.00" arrivalLane="20133107_0" arrivalPos="409.24" arrivalSpeed="13.32" duration="255.00" routeLength="2878.92" waitingTime="9.00" waitingCount="2" stopTime="0.00" timeLoss="54.69" rerouteNo="0" devices="tripinfo_2.2" vType="car" speedFactor="1.03" vaporized=""/>
    <tripinfo id="91.2" depart="130.00" departLane="76536995#3_0" departPos="5.10" departSpeed="9.46" departDelay="2.60" arrival="275.00" arrivalLane="-19930608#0_0" arrivalPos="47.74" arrivalSpeed="9.55" duration="145.00" routeLength="1430.35" waitingTime="0.00" waitingCount="0" stopTime="0.00" timeLoss="15.66" rerouteNo="0" devices="tripinfo_91.2" vType="car" speedFactor="0.93" vaporized=""/>
    <tripinfo id="8" depart="12.00" departLane="-20131567#2_0" departPos="5.10" departSpeed="14.14" departDelay="0.80" arrival="277.00" arrivalLane="20118480#14_0" arrivalPos="144.83" arrivalSpeed="13.12" duration="265.00" routeLength="3115.08" waitingTime="0.00" waitingCount="0" stopTime="0.00" timeLoss="23.30" rerouteNo="0" devices="tripinfo_8" vType="car" speedFactor="1.02" vaporized=""/>
    <tripinfo id="17" depart="24.00" departLane="-613230853#1_0" departPos="5.10" departSpeed="25.02" departDelay="0.20" arrival="281.00" arrivalLane="20110546_0" arrivalPos="93.34" arrivalSpeed="19.26" duration="257.00" routeLength="4415.56" waitingTime="13.00" waitingCount="1" stopTime="0.00" timeLoss="44.54" rerouteNo="0" devices="tripinfo_17" vType="car" speedFactor="0.90" vaporized=""/>
    <tripinfo id="17.1" depart="25.00" departLane="-613230853#1_0" departPos="5.10" departSpeed="23.55" departDelay="1.20" arrival="293.00" arrivalLane="20110546_0" arrivalPos="93.34" arrivalSpeed="19.23" duration="268.00" routeLength="4415.56" waitingTime="12.00" waitingCount="2" stopTime="0.00" timeLoss="50.10" rerouteNo="0" devices="tripinfo_17.1" vType="car" speedFactor="0.88" vaporized=""/>
    <tripinfo id="84" depart="118.00" departLane="-20130839#0_0" departPos="5.10" departSpeed="15.41" departDelay="0.40" arrival="293.00" arrivalLane="-20120605#0_0" arrivalPos="360.69" arrivalSpeed="15.38" duration="175.00" routeLength="2298.91" waitingTime="0.00" waitingCount="0" stopTime="0.00" timeLoss="21.45" rerouteNo="0" devices="tripinfo_84" vType="car" speedFactor="1.11" vaporized=""/>
    <tripinfo id="28" depart="40.00" departLane="-20124217#5_0" departPos="5.10" departSpeed="13.64" departDelay="0.80" arrival="294.00" arrivalLane="207079110#21_0" arrivalPos="41.65" arrivalSpeed="17.10" duration="254.00" routeLength="2280.48" waitingTime="63.00" waitingCount="3" stopTime="0.00" timeLoss="103.95" rerouteNo="0" devices="tripinfo_28" vType="car" speedFactor="0.98" vaporized=""/>
    <tripinfo id="137" depart="192.00" departLane="-20116461#3_0" departPos="5.10" departSpeed="15.00" departDelay="0.20" arrival="297.00" arrivalLane="-20116842_0" arrivalPos="75.60" arrivalSpeed="14.74" duration="105.00" routeLength="1303.60" waitingTime="0.00" waitingCount="0" stopTime="0.00" timeLoss="15.74" rerouteNo="0" devices="tripinfo_137" vType="car" speedFactor="1.08" vaporized=""/>
    <tripinfo id="28.1" depart="41.00" departLane="-20124217#5_0" departPos="5.10" departSpeed="10.08" departDelay="1.80" arrival="298.00" arrivalLane="207079110#21_1" arrivalPos="41.65" arrivalSpeed="17.79" duration="257.00" routeLength="2280.48" waitingTime="64.00" waitingCount="3" stopTime="0.00" timeLoss="110.32" rerouteNo="0" devices="tripinfo_28.1" vType="car" speedFactor="1.01" vaporized=""/>
    <tripinfo id="84.1" depart="119.00" departLane="-20130839#0_0" departPos="5.10" departSpeed="12.29" departDelay="1.40" arrival="298.00" arrivalLane="-20120605#0_0" arrivalPos="360.69" arrivalSpeed="14.80" duration="179.00" routeLength="2298.91" waitingTime="0.00" waitingCount="0" stopTime="0.00" timeLoss="22.31" rerouteNo="0" devices="tripinfo_84.1" vType="car" speedFactor="1.09" vaporized=""/>
    <tripinfo id="28.2" depart="42.00" departLane="-20124217#5_0" departPos="5.10" departSpeed="6.19" departDelay="2.80" arrival="299.00" arrivalLane="207079110#21_1" arrivalPos="41.65" arrivalSpeed="19.43" duration="257.00" routeLength="2280.48" waitingTime="57.00" waitingCount="2" stopTime="0.00" timeLoss="121.04" rerouteNo="0" devices="tripinfo_28.2" vType="car" speedFactor="1.09" vaporized=""/>
    <tripinfo id="137.1" depart="193.00" departLane="-20116461#3_0" departPos="5.10" departSpeed="12.20" departDelay="1.20" arrival="310.00" arrivalLane="-20116842_0" arrivalPos="75.60" arrivalSpeed="11.76" duration="117.00" routeLength="1303.60" waitingTime="0.00" waitingCount="0" stopTime="0.00" timeLoss="13.53" rerouteNo="0" devices="tripinfo_137.1" vType="car" speedFactor="0.92" vaporized=""/>
    <tripinfo id="72" depart="101.00" departLane="-709995751_1" departPos="5.10" departSpeed="17.86" departDelay="0.20" arrival="314.00" arrivalLane="-20133768#10_0" arrivalPos="168.86" arrivalSpeed="13.83" duration="213.00" routeLength="2192.93" waitingTime="53.00" waitingCount="2" stopTime="0.00" timeLoss="85.18" rerouteNo="0" devices="tripinfo_72" vType="car" speedFactor="1.00" vaporized=""/>
    <tripinfo id="152" depart="213.00" departLane="-20118794#4_0" departPos="5.10" departSpeed="11.16" departDelay="0.20" arrival="314.00" arrivalLane="-20119047#0_0" arrivalPos="78.74" arrivalSpeed="8.55" duration="101.00" routeLength="939.53" waitingTime="0.00" waitingCount="0" stopTime="0.00" timeLoss="15.13" rerouteNo="0" devices="tripinfo_152" vType="car" speedFactor="0.80" vaporized=""/>
    <tripinfo id="5.2" depart="9.00" departLane="-20131275#0_0" departPos="5.10" departSpeed="8.41" departDelay="2.00" arrival="315.00" arrivalLane="139602835#0_0" arrivalPos="362.85" arrivalSpeed="24.49" duration="306.00" routeLength="2420.75" waitingTime="138.00" waitingCount="4" stopTime="0.00" timeLoss="189.14" rerouteNo="0" devices="tripinfo_5.2" vType="car" speedFactor="1.12" vaporized=""/>
    <tripinfo id="72.2" depart="103.00" departLane="-709995751_1" departPos="5.10" departSpeed="11.50" departDelay="2.20" arrival="316.00" arrivalLane="-20133768#10_0" arrivalPos="168.86" arrivalSpeed="13.49" duration="213.00" routeLength="2192.93" waitingTime="45.00" waitingCount="2" stopTime="0.00" timeLoss="87.84" rerouteNo="0" devices="tripinfo_72.2" vType="car" speedFactor="1.03" vaporized=""/>
    <tripinfo id="84.2" depart="120.00" departLane="-20130839#0_0" departPos="5.10" departSpeed="8.54" departDelay="2.40" arrival="316.00" arrivalLane="-20120605#0_0" arrivalPos="360.69" arrivalSpeed="12.63" duration="196.00" routeLength="2298.91" waitingTime="0.00" waitingCount="0" stopTime="0.00" timeLoss="23.82" rerouteNo="0" devices="tripinfo_84.2" vType="car" speedFactor="0.99" vaporized=""/>
    <tripinfo id="152.1" depart="214.00" departLane="-20118794#4_0" departPos="5.10" departSpeed="7.95" departDelay="1.20" arrival="316.00" arrivalLane="-20119047#0_0" arrivalPos="78.74" arrivalSpeed="13.04" duration="102.00" routeLength="939.53" waitingTime="0.00" waitingCount="0" stopTime="0.00" timeLoss="32.88" rerouteNo="0" devices="tripinfo_152.1" vType="car" speedFactor="1.00" vaporized=""/>
    <tripinfo id="152.2" depart="216.00" departLane="-20118794#4_0" departPos="5.10" departSpeed="7.21" departDelay="3.20" arrival="318.00" arrivalLane="-20119047#0_0" arrivalPos="78.74" arrivalSpeed="13.77" duration="102.00" routeLength="939.53" waitingTime="0.00" waitingCount="0" stopTime="0.00" timeLoss="37.68" rerouteNo="0" devices="tripinfo_152.2" vType="car" speedFactor="1.07" vaporized=""/>
    <tripinfo id="5.1" depart="8.00" departLane="-20131275#0_0" departPos="5.10" departSpeed="11.37" departDelay="1.00" arrival="319.00" arrivalLane="139602835#0_0" arrivalPos="362.85" arrivalSpeed="22.66" duration="311.00" routeLength="2420.75" waitingTime="142.00" waitingCount="4" stopTime="0.00" timeLoss="186.64" rerouteNo="0" devices="tripinfo_5.1" vType="car" speedFactor="1.05" vaporized=""/>
    <tripinfo id="5" depart="7.00" departLane="-20131275#0_0" departPos="5.10" departSpeed="14.26" departDelay="0.00" arrival="322.00" arrivalLane="139602835#0_0" arrivalPos="362.85" arrivalSpeed="22.66" duration="315.00" routeLength="2420.75" waitingTime="145.00" waitingCount="4" stopTime="0.00" timeLoss="187.60" rerouteNo="0" devices="tripinfo_5" vType="car" speedFactor="1.03" vaporized=""/>
    <tripinfo id="137.2" depart="194.00" departLane="-20116461#3_0" departPos="5.10" departSpeed="8.18" departDelay="2.20" arrival="323.00" arrivalLane="-20116842_0" arrivalPos="75.60" arrivalSpeed="11.69" duration="129.00" routeLength="1303.60" waitingTime="0.00" waitingCount="0" stopTime="0.00" timeLoss="15.41" rerouteNo="0" devices="tripinfo_137.2" vType="car" speedFactor="0.84" vaporized=""/>
    <tripinfo id="27" depart="38.00" departLane="20125037#0_0" departPos="5.10" departSpeed="13.27" departDelay="0.20" arrival="330.00" arrivalLane="20122138#0_0" arrivalPos="186.44" arrivalSpeed="12.13" duration="292.00" routeLength="3860.67" waitingTime="0.00" waitingCount="0" stopTime="0.00" timeLoss="25.22" rerouteNo="0" devices="tripinfo_27" vType="car" speedFactor="0.96" vaporized=""/>
    <tripinfo id="36" depart="51.00" departLane="40597178#4_0" departPos="5.10" departSpeed="15.58" departDelay="0.60" arrival="330.00" arrivalLane="-413399523#5_0" arrivalPos="257.77" arrivalSpeed="16.36" duration="279.00" routeLength="4397.54" waitingTime="9.00" waitingCount="1" stopTime="0.00" timeLoss="38.47" rerouteNo="0" devices="tripinfo_36" vType="car" speedFactor="1.12" vaporized=""/>
    <tripinfo id="72.1" depart="102.00" departLane="-709995751_1" departPos="5.10" departSpeed="14.91" departDelay="1.20" arrival="330.00" arrivalLane="-20133768#10_0" arrivalPos="168.86" arrivalSpeed="10.58" duration="228.00" routeLength="2192.93" waitingTime="46.00" waitingCount="1" stopTime="0.00" timeLoss="75.31" rerouteNo="0" devices="tripinfo_72.1" vType="car" speedFactor="0.84" vaporized=""/>
    <tripinfo id="92" depart="129.00" departLane="-674166074#1_2" departPos="5.10" departSpeed="17.66" departDelay="0.20" arrival="331.00" arrivalLane="-67044819#0_0" arrivalPos="51.40" arrivalSpeed="11.91" duration="202.00" routeLength="1117.08" waitingTime="96.00" waitingCount="3" stopTime="0.00" timeLoss="126.49" rerouteNo="0" devices="tripinfo_92" vType="car" speedFactor="0.88" vaporized=""/>
    <tripinfo id="8.1" depart="13.00" departLane="-20131567#2_0" departPos="5.10" departSpeed="11.39" departDelay="1.80" arrival="333.00" arrivalLane="20118480#14_0" arrivalPos="144.83" arrivalSpeed="13.56" duration="320.00" routeLength="3115.08" waitingTime="44.00" waitingCount="1" stopTime="0.00" timeLoss="76.63" rerouteNo="0" devices="tripinfo_8.1" vType="car" speedFactor="1.01" vaporized=""/>
    <tripinfo id="27.1" depart="39.00" departLane="20125037#0_0" departPos="5.10" departSpeed="10.40" departDelay="1.20" arrival="333.00" arrivalLane="20122138#0_0" arrivalPos="186.44" arrivalSpeed="12.80" duration="294.00" routeLength="3860.67" waitingTime="0.00" waitingCount="0" stopTime="0.00" timeLoss="35.33" rerouteNo="0" devices="tripinfo_27.1" vType="car" speedFactor="0.98" vaporized=""/>
    <tripinfo id="50" depart="70.00" departLane="-1199484315#2_0" departPos="5.10" departSpeed="14.10" departDelay="0.00" arrival="333.00" arrivalLane="20141218#1_0" arrivalPos="257.30" arrivalSpeed="13.85" duration="263.00" routeLength="3812.37" waitingTime="0.00" waitingCount="0" stopTime="0.00" timeLoss="20.71" rerouteNo="0" devices="tripinfo_50" vType="car" speedFactor="1.02" vaporized=""/>
    <tripinfo id="154" depart="216.00" departLane="23746979#1_0" departPos="5.10" departSpeed="30.05" departDelay="0.40" arrival="334.00" arrivalLane="38654526#0_0" arrivalPos="412.94" arrivalSpeed="29.31" duration="118.00" routeLength="3468.78" waitingTime="0.00" waitingCount="0" stopTime="0.00" timeLoss="2.55" rerouteNo="0" devices="tripinfo_154" vType="car" speedFactor="1.03" vaporized=""/>
    <tripinfo id="27.2" depart="40.00" departLane="20125037#0_0" departPos="5.10" departSpeed="6.20" departDelay="2.20" arrival="335.00" arrivalLane="20122138#0_0" arrivalPos="186.44" arrivalSpeed="13.18" duration="295.00" routeLength="3860.67" waitingTime="0.00" waitingCount="0" stopTime="0.00" timeLoss="48.15" rerouteNo="0" devices="tripinfo_27.2" vType="car" speedFactor="1.03" vaporized=""/>
    <tripinfo id="36.1" depart="52.00" departLane="40597178#4_0" departPos="5.10" departSpeed="12.12" departDelay="1.60" arrival="336.00" arrivalLane="-413399523#5_0" arrivalPos="257.77" arrivalSpeed="16.16" duration="284.00" routeLength="4397.54" waitingTime="4.00" waitingCount="1" stopTime="0.00" timeLoss="37.96" rerouteNo="0" devices="tripinfo_36.1" vType="car" speedFactor="1.10" vaporized=""/>
    <tripinfo id="16.1" depart="23.00" departLane="1308529312#7_1" departPos="5.10" departSpeed="19.45" departDelay="0.60" arrival="340.00" arrivalLane="742157335#16_0" arrivalPos="216.20" arrivalSpeed="19.18" duration="317.00" routeLength="4359.97" waitingTime="80.00" waitingCount="2" stopTime="0.00" timeLoss="105.17" rerouteNo="0" devices="tripinfo_16.1" vType="car" speedFactor="1.09" vaporized=""/>
    <tripinfo id="50.1" depart="71.00" departLane="-1199484315#2_0" departPos="5.10" departSpeed="10.62" departDelay="1.00" arrival="341.00" arrivalLane="20141218#1_0" arrivalPos="257.30" arrivalSpeed="12.66" duration="270.00" routeLength="3812.37" waitingTime="0.00" waitingCount="0" stopTime="0.00" timeLoss="24.33" rerouteNo="0" devices="tripinfo_50.1" vType="car" speedFactor="1.00" vaporized=""/>
    <tripinfo id="189.1" depart="271.00" departLane="-312525369#25_1" departPos="4.82" departSpeed="18.82" departDelay="6.40" arrival="342.00" arrivalLane="379738162#16_0" arrivalPos="300.33" arrivalSpeed="22.43" duration="71.00" routeLength="1229.47" waitingTime="0.00" waitingCount="0" stopTime="0.00" timeLoss="12.09" rerouteNo="0" devices="tripinfo_189.1" vType="car" speedFactor="1.05" vaporized=""/>
    <tripinfo id="58" depart="82.00" departLane="-21232562#3_0" departPos="5.10" departSpeed="22.61" departDelay="0.80" arrival="343.00" arrivalLane="20128009#1_0" arrivalPos="84.79" arrivalSpeed="15.39" duration="261.00" routeLength="5617.88" waitingTime="0.00" waitingCount="0" stopTime="0.00" timeLoss="20.20" rerouteNo="0" devices="tripinfo_58" vType="car" speedFactor="1.12" vaporized=""/>
    <tripinfo id="92.1" depart="130.00" departLane="-674166074#1_2" departPos="5.10" departSpeed="11.03" departDelay="1.20" arrival="343.00" arrivalLane="-67044819#0_0" arrivalPos="51.40" arrivalSpeed="8.91" duration="213.00" routeLength="1117.08" waitingTime="101.00" waitingCount="4" stopTime="0.00" timeLoss="146.74" rerouteNo="0" devices="tripinfo_92.1" vType="car" speedFactor="0.99" vaporized=""/>
    <tripinfo id="8.2" depart="14.00" departLane="-20131567#2_0" departPos="5.10" departSpeed="6.93" departDelay="2.80" arrival="344.00" arrivalLane="20118480#14_0" arrivalPos="144.83" arrivalSpeed="13.22" duration="330.00" routeLength="3115.08" waitingTime="43.00" waitingCount="1" stopTime="0.00" timeLoss="77.17" rerouteNo="0" devices="tripinfo_8.2" vType="car" speedFactor="0.97" vaporized=""/>
    <tripinfo id="92.2" depart="131.00" departLane="-674166074#1_2" departPos="5.10" departSpeed="7.41" departDelay="2.20" arrival="345.00" arrivalLane="-67044819#0_0" arrivalPos="51.40" arrivalSpeed="12.88" duration="214.00" routeLength="1117.08" waitingTime="96.00" waitingCount="4" stopTime="0.00" timeLoss="146.23" rerouteNo="0" devices="tripinfo_92.2" vType="car" speedFactor="0.98" vaporized=""/>
    <tripinfo id="154.1" depart="216.00" departLane="23746979#1_1" departPos="5.10" departSpeed="27.37" departDelay="0.40" arrival="346.00" arrivalLane="38654526#0_1" arrivalPos="412.94" arrivalSpeed="26.29" duration="130.00" routeLength="3468.78" waitingTime="0.00" waitingCount="0" stopTime="0.00" timeLoss="3.16" rerouteNo="0" devices="tripinfo_154.1" vType="car" speedFactor="0.94" vaporized=""/>
    <tripinfo id="154.2" depart="217.00" departLane="23746979#1_0" departPos="5.10" departSpeed="27.94" departDelay="1.40" arrival="347.00" arrivalLane="38654526#0_0" arrivalPos="412.94" arrivalSpeed="28.76" duration="130.00" routeLength="3468.78" waitingTime="0.00" waitingCount="0" stopTime="0.00" timeLoss="16.54" rerouteNo="0" devices="tripinfo_154.2" vType="car" speedFactor="1.05" vaporized=""/>
    <tripinfo id="189.2" depart="272.00" departLane="-312525369#25_1" departPos="4.82" departSpeed="16.96" departDelay="7.40" arrival="347.00" arrivalLane="379738162#16_0" arrivalPos="300.33" arrivalSpeed="22.47" duration="75.00" routeLength="1229.47" waitingTime="0.00" waitingCount="0" stopTime="0.00" timeLoss="14.28" rerouteNo="0" devices="tripinfo_189.2" vType="car" speedFactor="1.03" vaporized=""/>
    <tripinfo id="16" depart="23.00" departLane="1308529312#7_0" departPos="5.10" departSpeed="18.66" departDelay="0.60" arrival="349.00" arrivalLane="742157335#16_0" arrivalPos="216.20" arrivalSpeed="18.62" duration="326.00" routeLength="4359.97" waitingTime="79.00" waitingCount="2" stopTime="0.00" timeLoss="105.07" rerouteNo="0" devices="tripinfo_16" vType="car" speedFactor="1.04" vaporized=""/>
    <tripinfo id="24.2" depart="36.00" departLane="20124217#0_0" departPos="5.10" departSpeed="4.85" departDelay="2.40" arrival="349.00" arrivalLane="-674166079#2_0" arrivalPos="31.89" arrivalSpeed="24.55" duration="313.00" routeLength="1575.94" waitingTime="161.00" waitingCount="5" stopTime="0.00" timeLoss="214.25" rerouteNo="0" devices="tripinfo_24.2" vType="car" speedFactor="0.91" vaporized=""/>
    <tripinfo id="189" depart="265.00" departLane="-312525369#25_1" departPos="4.82" departSpeed="0.00" departDelay="0.40" arrival="350.00" arrivalLane="379738162#16_0" arrivalPos="300.33" arrivalSpeed="21.87" duration="85.00" routeLength="1229.47" waitingTime="4.00" waitingCount="1" stopTime="0.00" timeLoss="24.28" rerouteNo="0" devices="tripinfo_189" vType="car" speedFactor="1.03" vaporized=""/>
    <tripinfo id="77" depart="108.00" departLane="-20113600#3_0" departPos="5.10" departSpeed="13.67" departDelay="0.20" arrival="353.00" arrivalLane="-20136506#2_0" arrivalPos="342.13" arrivalSpeed="13.56" duration="245.00" routeLength="3337.01" waitingTime="0.00" waitingCount="0" stopTime="0.00" timeLoss="18.88" rerouteNo="0" devices="tripinfo_77" vType="car" speedFactor="0.98" vaporized=""/>
    <tripinfo id="77.1" depart="109.00" departLane="-20113600#3_0" departPos="5.10" departSpeed="11.12" departDelay="1.20" arrival="355.00" arrivalLane="-20136506#2_0" arrivalPos="342.13" arrivalSpeed="14.05" duration="246.00" routeLength="3337.01" waitingTime="0.00" waitingCount="0" stopTime="0.00" timeLoss="43.58" rerouteNo="0" devices="tripinfo_77.1" vType="car" speedFactor="1.10" vaporized=""/>
    <tripinfo id="78" depart="110.00" departLane="-390634953#3_0" departPos="5.10" departSpeed="17.93" departDelay="0.80" arrival="355.00" arrivalLane="20118480#10_0" arrivalPos="88.47" arrivalSpeed="12.83" duration="245.00" routeLength="2667.04" waitingTime="16.00" waitingCount="1" stopTime="0.00" timeLoss="47.63" rerouteNo="0" devices="tripinfo_78" vType="car" speedFactor="1.00" vaporized=""/>
    <tripinfo id="16.2" depart="24.00" departLane="1308529312#7_1" departPos="5.10" departSpeed="17.48" departDelay="1.60" arrival="357.00" arrivalLane="742157335#16_0" arrivalPos="216.20" arrivalSpeed="17.67" duration="333.00" routeLength="4359.97" waitingTime="77.00" waitingCount="2" stopTime="0.00" timeLoss="102.17" rerouteNo="0" devices="tripinfo_16.2" vType="car" speedFactor="1.00" vaporized=""/>
    <tripinfo id="50.2" depart="72.00" departLane="-1199484315#2_0" departPos="5.10" departSpeed="6.12" departDelay="2.00" arrival="357.00" arrivalLane="20141218#1_0" arrivalPos="257.30" arrivalSpeed="12.54" duration="285.00" routeLength="3812.37" waitingTime="0.00" waitingCount="0" stopTime="0.00" timeLoss="27.33" rerouteNo="0" devices="tripinfo_50.2" vType="car" speedFactor="0.95" vaporized=""/>
    <tripinfo id="77.2" depart="110.00" departLane="-20113600#3_0" departPos="5.10" departSpeed="6.60" departDelay="2.20" arrival="357.00" arrivalLane="-20136506#2_0" arrivalPos="342.13" arrivalSpeed="13.25" duration="247.00" routeLength="3337.01" waitingTime="0.00" waitingCount="0" stopTime="0.00" timeLoss="31.79" rerouteNo="0" devices="tripinfo_77.2" vType="car" speedFactor="1.04" vaporized=""/>
    <tripinfo id="78.1" depart="111.00" departLane="-390634953#3_0" departPos="5.10" departSpeed="16.04" departDelay="1.80" arrival="357.00" arrivalLane="20118480#10_0" arrivalPos="88.47" arrivalSpeed="15.12" duration="246.00" routeLength="2667.04" waitingTime="16.00" waitingCount="1" stopTime="0.00" timeLoss="65.03" rerouteNo="0" devices="tripinfo_78.1" vType="car" speedFactor="1.10" vaporized=""/>
    <tripinfo id="115" depart="161.00" departLane="-15089727#4_0" departPos="5.10" departSpeed="16.81" departDelay="0.00" arrival="368.00" arrivalLane="-20129315#0_0" arrivalPos="121.37" arrivalSpeed="16.37" duration="207.00" routeLength="2983.25" waitingTime="0.00" waitingCount="0" stopTime="0.00" timeLoss="25.56" rerouteNo="0" devices="tripinfo_115" vType="car" speedFactor="1.21" vaporized=""/>
    <tripinfo id="187" depart="262.00" departLane="-524116520_0" departPos="5.10" departSpeed="7.34" departDelay="0.20" arrival="368.00" arrivalLane="-139456715#4_0" arrivalPos="99.79" arrivalSpeed="9.35" duration="106.00" routeLength="745.33" waitingTime="1.00" waitingCount="1" stopTime="0.00" timeLoss="28.89" rerouteNo="0" devices="tripinfo_187" vType="car" speedFactor="1.09" vaporized=""/>